LAMMPS data file via write_data, version 14 May 2016, timestep = 42

2400 atoms
3 atom types

-1.3661858367660725e+01 1.3661858367660725e+01 xlo xhi
-1.1831516409289453e+01 1.1831516409289453e+01 ylo yhi
-1.3886703703556934e+01 1.3892300111957894e+01 zlo zhi
-1.3661858367649504e+01 0.0000000000000000e+00 0.0000000000000000e+00 xy xz yz

Masses

1 6.941
2 58.933
3 16

Atoms # charge

640 2 1.0734658226977254e+00 -1.2295673024050684e+01 -1.1831515564112147e+01 -9.5458063286812944e-05 1 1 0
652 2 1.0734658897200051e+00 -9.5633013526971844e+00 -1.1831515564369907e+01 -9.5455826855328496e-05 1 1 0
664 2 1.0734658710943543e+00 -6.8309296811295352e+00 -1.1831515564808065e+01 -9.5456978550956251e-05 1 1 0
676 2 1.0734658015115530e+00 -4.0985580088310876e+00 -1.1831515565275959e+01 -9.5461085466652662e-05 1 1 0
688 2 1.0734657538816872e+00 -1.3661863352355255e+00 -1.1831515565732717e+01 -9.5466501887742083e-05 1 1 0
760 2 1.0734657004107628e+00 -1.3661858859790190e+01 -9.4652122990227774e+00 -9.5463961899966421e-05 1 1 0
772 2 1.0734658120242573e+00 -1.0929487188599202e+01 -9.4652122991946612e+00 -9.5460119192480875e-05 1 1 0
784 2 1.0734658494703992e+00 -8.1971155172959325e+00 -9.4652122994915402e+00 -9.5460011230841246e-05 1 1 0
796 2 1.0734657855455374e+00 -5.4647438453870318e+00 -9.4652122997431185e+00 -9.5463868303724553e-05 1 1 0
808 2 1.0734656963905673e+00 -2.7323721724271017e+00 -9.4652122998334214e+00 -9.5470194588997970e-05 1 1 0
880 2 1.0734655660134667e+00 -1.5028044695724429e+01 -7.0989090225378728e+00 -9.5472628810711058e-05 1 1 0
892 2 1.0734656635561488e+00 -1.2295673024346105e+01 -7.0989090228250991e+00 -9.5467497812862234e-05 1 1 0
904 2 1.0734657448030875e+00 -9.5633013532090771e+00 -7.0989090230375096e+00 -9.5465775162395516e-05 1 1 0
916 2 1.0734657361104356e+00 -6.8309296815630134e+00 -7.0989090231488632e+00 -9.5468366144046968e-05 1 1 0
928 2 1.0734656517412986e+00 -4.0985580089854583e+00 -7.0989090230233129e+00 -9.5474441117460174e-05 1 1 0
1000 2 1.0734654812962900e+00 -1.6394230532369274e+01 -4.7326057328020763e+00 -9.5480584644036526e-05 1 1 0
1012 2 1.0734655333655341e+00 -1.3661858860283512e+01 -4.7326057334977962e+00 -9.5474836889763992e-05 1 1 0
1024 2 1.0734655998966738e+00 -1.0929487188962412e+01 -4.7326057338178034e+00 -9.5471826464077481e-05 1 1 0
1036 2 1.0734656345179441e+00 -8.1971155174845602e+00 -4.7326057338366860e+00 -9.5472803868901224e-05 1 1 0
1048 2 1.0734656046683979e+00 -5.4647438451663088e+00 -4.7326057335653040e+00 -9.5477614573624692e-05 1 1 0
1120 2 1.0734654883046371e+00 -1.7760416369930873e+01 -2.3663024329187188e+00 -9.5485017345353640e-05 1 1 0
1132 2 1.0734655233264634e+00 -1.5028044696925814e+01 -2.3663024341420638e+00 -9.5479412518528761e-05 1 1 0
1144 2 1.0734655440393073e+00 -1.2295673024895484e+01 -2.3663024348619111e+00 -9.5475792743826560e-05 1 1 0
1156 2 1.0734655641289461e+00 -9.5633013532368452e+00 -2.3663024349771806e+00 -9.5475491610486074e-05 1 1 0
1168 2 1.0734655781142854e+00 -6.8309296810888469e+00 -2.3663024346039023e+00 -9.5478696469086799e-05 1 1 0
1826 1 4.1878106369738954e-01 -1.3661858819291725e+01 -1.1042747858444601e+01 -2.3150121617441108e+00 1 1 1
1829 2 1.0734645090985664e+00 -1.3661858877920787e+01 -1.1042747921271467e+01 -9.2597623668858198e+00 1 1 1
1833 3 -7.4612341102692981e-01 -1.3661858721173397e+01 -1.1042747778623808e+01 -5.6716288240018304e+00 1 1 1
1834 3 -7.4612215787343061e-01 -1.3661858802820555e+01 -1.1042747758982825e+01 -1.2847897764794512e+01 1 1 1
1837 1 4.1878247615327890e-01 -1.2295672985217241e+01 -1.1831515618003902e+01 -6.9448463902040896e+00 1 1 1
1838 1 4.1878117774384710e-01 -1.0929487145192130e+01 -1.1042747857682450e+01 -2.3150121603352094e+00 1 1 1
1839 1 4.1878107676238535e-01 -1.2295672985005101e+01 -1.0253980085903326e+01 -1.1574680625700996e+01 1 1 1
1841 2 1.0734644280289671e+00 -1.0929487200225910e+01 -1.1042747922844255e+01 -9.2597623652939767e+00 1 1 1
1842 2 1.0734644439466421e+00 -1.2295672915040914e+01 -1.0253980109598018e+01 -4.6299304334443381e+00 1 1 1
1843 3 -7.4612466568933611e-01 -1.2295672968729082e+01 -1.1831515736044359e+01 -1.0301462247445771e+01 1 1 1
1844 3 -7.4612451575256289e-01 -1.2295672885588115e+01 -1.1831515700686316e+01 -3.5882305450104361e+00 1 1 1
1845 3 -7.4612340983433123e-01 -1.0929487049385596e+01 -1.1042747777494915e+01 -5.6716288271581092e+00 1 1 1
1846 3 -7.4612253197329659e-01 -1.0929487131493206e+01 -1.1042747759099887e+01 -1.2847897762802825e+01 1 1 1
1847 3 -7.4612236187790981e-01 -1.2295673099395458e+01 -1.0253980029063413e+01 -1.0417950305940415e+00 1 1 1
1848 3 -7.4612350550010320e-01 -1.2295673089098537e+01 -1.0253980165412688e+01 -8.2180639674207505e+00 1 1 1
1849 1 4.1878245157607275e-01 -9.5633013102519371e+00 -1.1831515617420811e+01 -6.9448463893447450e+00 1 1 1
1850 1 4.1878123558481711e-01 -8.1971154727543833e+00 -1.1042747857313120e+01 -2.3150121598734170e+00 1 1 1
1851 1 4.1878097104593487e-01 -9.5633013100975717e+00 -1.0253980085579979e+01 -1.1574680625808067e+01 1 1 1
1853 2 1.0734644241037037e+00 -8.1971155180869850e+00 -1.1042747922398384e+01 -9.2597623635012951e+00 1 1 1
1854 2 1.0734645032669359e+00 -9.5633012373282327e+00 -1.0253980109600391e+01 -4.6299304291227532e+00 1 1 1
1855 3 -7.4612487720627185e-01 -9.5633012980730108e+00 -1.1831515734820961e+01 -1.0301462248123341e+01 1 1 1
1856 3 -7.4612440384523548e-01 -9.5633012140634861e+00 -1.1831515701560091e+01 -3.5882305477968135e+00 1 1 1
1857 3 -7.4612332761199018e-01 -8.1971153784837458e+00 -1.1042747777237922e+01 -5.6716288284369973e+00 1 1 1
1858 3 -7.4612265036049763e-01 -8.1971154624222962e+00 -1.1042747759920838e+01 -1.2847897762758036e+01 1 1 1
1859 3 -7.4612210070444052e-01 -9.5633014244130585e+00 -1.0253980028327247e+01 -1.0417950317919953e+00 1 1 1
1860 3 -7.4612355764278793e-01 -9.5633014205680986e+00 -1.0253980166393406e+01 -8.2180639688764643e+00 1 1 1
1861 1 4.1878246198134872e-01 -6.8309296363155445e+00 -1.1831515616799523e+01 -6.9448463890116754e+00 1 1 1
1862 1 4.1878118280293075e-01 -5.4647438016949526e+00 -1.1042747857403960e+01 -2.3150121605699212e+00 1 1 1
1863 1 4.1878101339716411e-01 -6.8309296359522174e+00 -1.0253980085303246e+01 -1.1574680625336047e+01 1 1 1
1865 2 1.0734644702523122e+00 -5.4647438347700845e+00 -1.1042747919887326e+01 -9.2597623621373071e+00 1 1 1
1866 2 1.0734645308285147e+00 -6.8309295580957192e+00 -1.0253980108434828e+01 -4.6299304289358840e+00 1 1 1
1867 3 -7.4612484476557261e-01 -6.8309296285187768e+00 -1.1831515735097115e+01 -1.0301462248886637e+01 1 1 1
1868 3 -7.4612440804405566e-01 -6.8309295427457393e+00 -1.1831515702711568e+01 -3.5882305483151029e+00 1 1 1
1869 3 -7.4612329807728095e-01 -5.4647437072997551e+00 -1.1042747778138329e+01 -5.6716288273121247e+00 1 1 1
1870 3 -7.4612248531289871e-01 -5.4647437940931418e+00 -1.1042747761134780e+01 -1.2847897764748689e+01 1 1 1
1871 3 -7.4612211880738366e-01 -6.8309297489339889e+00 -1.0253980027716125e+01 -1.0417950306278758e+00 1 1 1
1872 3 -7.4612343678469428e-01 -6.8309297531096886e+00 -1.0253980167990024e+01 -8.2180639700734481e+00 1 1 1
1873 1 4.1878250087480573e-01 -4.0985579636310199e+00 -1.1831515616301395e+01 -6.9448463893661225e+00 1 1 1
1874 1 4.1878110996462653e-01 -2.7323721311559215e+00 -1.1042747857932424e+01 -2.3150121621723141e+00 1 1 1
1875 1 4.1878113451956306e-01 -4.0985579627651827e+00 -1.0253980085151758e+01 -1.1574680624459605e+01 1 1 1
1877 2 1.0734645358703228e+00 -2.7323721541822916e+00 -1.1042747916205695e+01 -9.2597623618754117e+00 1 1 1
1878 2 1.0734645071076065e+00 -4.0985578799685047e+00 -1.0253980106372396e+01 -4.6299304330586200e+00 1 1 1
1879 3 -7.4612463840249366e-01 -4.0985579585657419e+00 -1.1831515736872518e+01 -1.0301462249387210e+01 1 1 1
1880 3 -7.4612447783059788e-01 -4.0985578706007217e+00 -1.1831515703788686e+01 -3.5882305463154189e+00 1 1 1
1881 3 -7.4612325633375787e-01 -2.7323720347546132e+00 -1.1042747779863488e+01 -5.6716288241508188e+00 1 1 1
1882 3 -7.4612222957132712e-01 -2.7323721245545656e+00 -1.1042747762321365e+01 -1.2847897767995116e+01 1 1 1
1883 3 -7.4612235287597950e-01 -4.0985580734601381e+00 -1.0253980027506371e+01 -1.0417950275017969e+00 1 1 1
1884 3 -7.4612328174646003e-01 -4.0985580842546465e+00 -1.0253980169702146e+01 -8.2180639705357379e+00 1 1 1
1885 1 4.1878259060007461e-01 -1.3661862918971419e+00 -1.1831515616176480e+01 -6.9448463903250275e+00 1 1 1
1887 1 4.1878124974758019e-01 -1.3661862904751665e+00 -1.0253980085184379e+01 -1.1574680623594000e+01 1 1 1
1890 2 1.0734645065917934e+00 -1.3661862048815969e+00 -1.0253980104326530e+01 -4.6299304399896872e+00 1 1 1
1891 3 -7.4612437012940258e-01 -1.3661862867757861e+00 -1.1831515739452765e+01 -1.0301462249322183e+01 1 1 1
1892 3 -7.4612444142157297e-01 -1.3661861971088562e+00 -1.1831515704244017e+01 -3.5882305425014369e+00 1 1 1
1895 3 -7.4612252295902903e-01 -1.3661863987375025e+00 -1.0253980027725017e+01 -1.0417950237100904e+00 1 1 1
1896 3 -7.4612308072796141e-01 -1.3661864120524498e+00 -1.0253980170819148e+01 -8.2180639699370577e+00 1 1 1
1946 1 4.1878089369933325e-01 -1.5028044656267889e+01 -8.6764445642622583e+00 -2.3150121647103283e+00 1 1 1
1949 2 1.0734645414532848e+00 -1.5028044716367805e+01 -8.6764446546383898e+00 -9.2597623693228712e+00 1 1 1
1953 3 -7.4612356711442207e-01 -1.5028044556532695e+01 -8.6764444992159682e+00 -5.6716288166119746e+00 1 1 1
1954 3 -7.4612189589662503e-01 -1.5028044639408870e+01 -8.6764444674403745e+00 -1.2847897770225565e+01 1 1 1
1957 1 4.1878240652485732e-01 -1.3661858822558235e+01 -9.4652123227166118e+00 -6.9448463924524253e+00 1 1 1
1958 1 4.1878098002492037e-01 -1.2295672981582737e+01 -8.6764445638421090e+00 -2.3150121629257416e+00 1 1 1
1959 1 4.1878116253577596e-01 -1.3661858822394635e+01 -7.8876767958017195e+00 -1.1574680624914395e+01 1 1 1
1961 2 1.0734644124098354e+00 -1.2295673040428770e+01 -8.6764446551863248e+00 -9.2597623677174745e+00 1 1 1
1962 2 1.0734643370127379e+00 -1.3661858753103356e+01 -7.8876768381872004e+00 -4.6299304433382868e+00 1 1 1
1963 3 -7.4612450582101619e-01 -1.3661858803233496e+01 -9.4652124541811009e+00 -1.0301462244955351e+01 1 1 1
1964 3 -7.4612486009681578e-01 -1.3661858722287871e+01 -9.4652124147864587e+00 -3.5882305387326454e+00 1 1 1
1965 3 -7.4612370508397297e-01 -1.2295672884300936e+01 -8.6764444983442797e+00 -5.6716288205352292e+00 1 1 1
1966 3 -7.4612233475042522e-01 -1.2295672967256255e+01 -8.6764444680317165e+00 -1.2847897767452018e+01 1 1 1
1967 3 -7.4612282621993442e-01 -1.3661858936000026e+01 -7.8876767522395905e+00 -1.0417950247080690e+00 1 1 1
1968 3 -7.4612351818996137e-01 -1.3661858924918540e+01 -7.8876768747677408e+00 -8.2180639663743431e+00 1 1 1
1969 1 4.1878237891042952e-01 -1.0929487147227555e+01 -9.4652123223418272e+00 -6.9448463913575020e+00 1 1 1
1970 1 4.1878112291890851e-01 -9.5633013086546761e+00 -8.6764445637609011e+00 -2.3150121619853312e+00 1 1 1
1971 1 4.1878100075111951e-01 -1.0929487147269990e+01 -7.8876767956039071e+00 -1.1574680625233535e+01 1 1 1
1973 2 1.0734643996706390e+00 -9.5633013587630558e+00 -8.6764446544542739e+00 -9.2597623657027839e+00 1 1 1
1974 2 1.0734643866858751e+00 -1.0929487076186714e+01 -7.8876768377310409e+00 -4.6299304374125061e+00 1 1 1
1975 3 -7.4612482081904896e-01 -1.0929487132343370e+01 -9.4652124530994399e+00 -1.0301462245608679e+01 1 1 1
1976 3 -7.4612466496618768e-01 -1.0929487050578215e+01 -9.4652124157605293e+00 -3.5882305425605772e+00 1 1 1
1977 3 -7.4612352052957021e-01 -9.5633012137119042e+00 -8.6764444979092499e+00 -5.6716288228148084e+00 1 1 1
1978 3 -7.4612260625995397e-01 -9.5633012976654150e+00 -8.6764444691476506e+00 -1.2847897766558798e+01 1 1 1
1979 3 -7.4612250376768607e-01 -1.0929487261261780e+01 -7.8876767513546984e+00 -1.0417950268125331e+00 1 1 1
1980 3 -7.4612367644557875e-01 -1.0929487255685284e+01 -7.8876768761617679e+00 -8.2180639679076943e+00 1 1 1
1981 1 4.1878245425626315e-01 -8.1971154727432314e+00 -9.4652123220332083e+00 -6.9448463907525397e+00 1 1 1
1982 1 4.1878115560161272e-01 -6.8309296373038819e+00 -8.6764445640239423e+00 -2.3150121623038977e+00 1 1 1
1983 1 4.1878099617825515e-01 -8.1971154727841054e+00 -7.8876767955246105e+00 -1.1574680624965014e+01 1 1 1
1985 2 1.0734644628382612e+00 -6.8309296742474910e+00 -8.6764446526230969e+00 -9.2597623638224089e+00 1 1 1
1986 2 1.0734644777070712e+00 -8.1971153967014025e+00 -7.8876768367098009e+00 -4.6299304354408477e+00 1 1 1
1987 3 -7.4612480895570821e-01 -8.1971154635364130e+00 -9.4652124529499968e+00 -1.0301462246496202e+01 1 1 1
1988 3 -7.4612446350962525e-01 -8.1971153793980776e+00 -9.4652124168265956e+00 -3.5882305441176978e+00 1 1 1
1989 3 -7.4612333667748076e-01 -6.8309295436720721e+00 -8.6764444981535274e+00 -5.6716288225546290e+00 1 1 1
1990 3 -7.4612253937060613e-01 -6.8309296293059383e+00 -8.6764444703736476e+00 -1.2847897768039463e+01 1 1 1
1991 3 -7.4612232229177733e-01 -8.1971155861391463e+00 -7.8876767505286765e+00 -1.0417950265203544e+00 1 1 1
1992 3 -7.4612350470444233e-01 -8.1971155882246993e+00 -7.8876768777687518e+00 -8.2180639693269750e+00 1 1 1
1993 1 4.1878251070146544e-01 -5.4647437995396402e+00 -9.4652123218312596e+00 -6.9448463908572480e+00 1 1 1
1994 1 4.1878105951538425e-01 -4.0985579668820638e+00 -8.6764445644855872e+00 -2.3150121638168155e+00 1 1 1
1995 1 4.1878110761899801e-01 -5.4647437992262606e+00 -7.8876767955875735e+00 -1.1574680624117981e+01 1 1 1
1997 2 1.0734645271127685e+00 -4.0985579912854107e+00 -8.6764446503068307e+00 -9.2597623627955201e+00 1 1 1
1998 2 1.0734644942476166e+00 -5.4647437172434756e+00 -7.8876768354111908e+00 -4.6299304382576896e+00 1 1 1
1999 3 -7.4612459168057677e-01 -5.4647437950800519e+00 -9.4652124538652345e+00 -1.0301462247349432e+01 1 1 1
2000 3 -7.4612449361890021e-01 -5.4647437076042014e+00 -9.4652124176987655e+00 -3.5882305427769161e+00 1 1 1
2001 3 -7.4612333007779008e-01 -4.0985578725211553e+00 -8.6764444990773484e+00 -5.6716288197644484e+00 1 1 1
2002 3 -7.4612225921275321e-01 -4.0985579603499822e+00 -8.6764444712219326e+00 -1.2847897771421760e+01 1 1 1
2003 3 -7.4612245785899745e-01 -5.4647439110122633e+00 -7.8876767501127718e+00 -1.0417950237686053e+00 1 1 1
2004 3 -7.4612328818918017e-01 -5.4647439201666330e+00 -7.8876768790282119e+00 -8.2180639702171998e+00 1 1 1
2005 1 4.1878253715897867e-01 -2.7323721276549762e+00 -9.4652123217928459e+00 -6.9448463916937948e+00 1 1 1
2007 1 4.1878123547740020e-01 -2.7323721266473520e+00 -7.8876767957869207e+00 -1.1574680623047971e+01 1 1 1
2010 2 1.0734644533956874e+00 -2.7323720406510894e+00 -7.8876768342312342e+00 -4.6299304448950043e+00 1 1 1
2011 3 -7.4612434045000053e-01 -2.7323721249031472e+00 -9.4652124555133970e+00 -1.0301462247730518e+01 1 1 1
2012 3 -7.4612462492462583e-01 -2.7323720342491171e+00 -9.4652124180769839e+00 -3.5882305389619447e+00 1 1 1
2015 3 -7.4612273171774879e-01 -2.7323722362880556e+00 -7.8876767503329575e+00 -1.0417950196232582e+00 1 1 1
2016 3 -7.4612314678714575e-01 -2.7323722491188356e+00 -7.8876768794790753e+00 -8.2180639701567220e+00 1 1 1
2066 1 4.1878083150155859e-01 -1.6394230493851087e+01 -6.3101412750755905e+00 -2.3150121673108348e+00 1 1 1
2069 2 1.0734646337581790e+00 -1.6394230552608015e+01 -6.3101413876431165e+00 -9.2597623694350730e+00 1 1 1
2073 3 -7.4612341963696538e-01 -1.6394230392661051e+01 -6.3101412221204187e+00 -5.6716288102513115e+00 1 1 1
2074 3 -7.4612173717007446e-01 -1.6394230476934265e+01 -6.3101411707446760e+00 -1.2847897776602435e+01 1 1 1
2077 1 4.1878241745905864e-01 -1.5028044660079669e+01 -7.0989090335178027e+00 -6.9448463942011207e+00 1 1 1
2078 1 4.1878081364770869e-01 -1.3661858818561146e+01 -6.3101412750058152e+00 -2.3150121653671913e+00 1 1 1
2079 1 4.1878129054603408e-01 -1.5028044659787223e+01 -5.5213735139629856e+00 -1.1574680623760361e+01 1 1 1
2081 2 1.0734644630943333e+00 -1.3661858878869808e+01 -6.3101413869183167e+00 -9.2597623680734813e+00 1 1 1
2082 2 1.0734643581354888e+00 -1.5028044590093483e+01 -5.5213735605406713e+00 -4.6299304506981063e+00 1 1 1
2083 3 -7.4612427634841527e-01 -1.5028044638774896e+01 -7.0989091727028200e+00 -1.0301462243353532e+01 1 1 1
2084 3 -7.4612506870027695e-01 -1.5028044559165316e+01 -7.0989091259861663e+00 -3.5882305333938245e+00 1 1 1
2085 3 -7.4612379687492325e-01 -1.3661858719661684e+01 -6.3101412216935717e+00 -5.6716288144458300e+00 1 1 1
2086 3 -7.4612210722635830e-01 -1.3661858803841904e+01 -6.3101411718752409e+00 -1.2847897773353152e+01 1 1 1
2087 3 -7.4612313058661495e-01 -1.5028044772350814e+01 -5.5213734816057007e+00 -1.0417950185665088e+00 1 1 1
2088 3 -7.4612322200564596e-01 -1.5028044761680277e+01 -5.5213735797744219e+00 -8.2180639673945457e+00 1 1 1
2089 1 4.1878229239017356e-01 -1.2295672984565883e+01 -7.0989090332461897e+00 -6.9448463929618871e+00 1 1 1
2090 1 4.1878092779684606e-01 -1.0929487145048430e+01 -6.3101412752637351e+00 -2.3150121640531154e+00 1 1 1
2091 1 4.1878111055371503e-01 -1.2295672984660733e+01 -5.5213735137683013e+00 -1.1574680624210785e+01 1 1 1
2093 2 1.0734644029326250e+00 -1.0929487198957904e+01 -6.3101413851702546e+00 -9.2597623660396557e+00 1 1 1
2094 2 1.0734643268211412e+00 -1.2295672914247220e+01 -5.5213735594625781e+00 -4.6299304439191307e+00 1 1 1
2095 3 -7.4612471628008092e-01 -1.2295672966851956e+01 -7.0989091722194662e+00 -1.0301462243926069e+01 1 1 1
2096 3 -7.4612504725958340e-01 -1.2295672887274122e+01 -7.0989091270629485e+00 -3.5882305379030885e+00 1 1 1
2097 3 -7.4612375083818150e-01 -1.0929487048630474e+01 -6.3101412215178172e+00 -5.6716288174858480e+00 1 1 1
2098 3 -7.4612244477893475e-01 -1.0929487133423274e+01 -6.3101411734633182e+00 -1.2847897771682806e+01 1 1 1
2099 3 -7.4612294578594318e-01 -1.2295673097862231e+01 -5.5213734805753969e+00 -1.0417950212736571e+00 1 1 1
2100 3 -7.4612357049206857e-01 -1.2295673091509006e+01 -5.5213735817105549e+00 -8.2180639688553061e+00 1 1 1
2101 1 4.1878236582119499e-01 -9.5633013097150474e+00 -7.0989090331451203e+00 -6.9448463921245418e+00 1 1 1
2102 1 4.1878104465864086e-01 -8.1971154732071483e+00 -6.3101412758118069e+00 -2.3150121638965064e+00 1 1 1
2103 1 4.1878104971351771e-01 -9.5633013099583017e+00 -5.5213735138168403e+00 -1.1574680624150197e+01 1 1 1
2105 2 1.0734644581547841e+00 -8.1971155149143708e+00 -6.3101413830608974e+00 -9.2597623639284219e+00 1 1 1
2106 2 1.0734644084421998e+00 -9.5633012355560822e+00 -5.5213735579766983e+00 -4.6299304403525472e+00 1 1 1
2107 3 -7.4612480609773890e-01 -9.5633012978108418e+00 -7.0989091722073976e+00 -1.0301462244795601e+01 1 1 1
2108 3 -7.4612476380091930e-01 -9.5633012159090356e+00 -7.0989091282340233e+00 -3.5882305404932904e+00 1 1 1
2109 3 -7.4612346296499443e-01 -8.1971153789051243e+00 -6.3101412215864858e+00 -5.6716288182181440e+00 1 1 1
2110 3 -7.4612253229428482e-01 -8.1971154645433302e+00 -6.3101411749829754e+00 -1.2847897772320547e+01 1 1 1
2111 3 -7.4612270498674671e-01 -9.5633014229818691e+00 -5.5213734796065008e+00 -1.0417950218877934e+00 1 1 1
2112 3 -7.4612350290766005e-01 -9.5633014233474345e+00 -5.5213735837243414e+00 -8.2180639703562672e+00 1 1 1
2113 1 4.1878248843316412e-01 -6.8309296359633400e+00 -7.0989090332548361e+00 -6.9448463919599837e+00 1 1 1
2114 1 4.1878103290287394e-01 -5.4647438024920554e+00 -6.3101412764435079e+00 -2.3150121650350712e+00 1 1 1
2115 1 4.1878111390305450e-01 -6.8309296360590199e+00 -5.5213735140787525e+00 -1.1574680623501845e+01 1 1 1
2117 2 1.0734645396973423e+00 -5.4647438307560012e+00 -6.3101413814286209e+00 -9.2597623623768577e+00 1 1 1
2118 2 1.0734644887184170e+00 -6.8309295558437455e+00 -5.5213735568175082e+00 -4.6299304413954747e+00 1 1 1
2119 3 -7.4612460786828227e-01 -6.8309296301013323e+00 -7.0989091726941860e+00 -1.0301462245780632e+01 1 1 1
2120 3 -7.4612458920740887e-01 -6.8309295442550848e+00 -7.0989091290252180e+00 -3.5882305401819110e+00 1 1 1
2121 3 -7.4612330158343931e-01 -5.4647437088978883e+00 -6.3101412218559991e+00 -5.6716288162856383e+00 1 1 1
2122 3 -7.4612235248357528e-01 -5.4647437955604250e+00 -6.3101411758432828e+00 -1.2847897775197472e+01 1 1 1
2123 3 -7.4612264301527154e-01 -6.8309297482125579e+00 -5.5213734789806477e+00 -1.0417950200067292e+00 1 1 1
2124 3 -7.4612323358797272e-01 -6.8309297552878956e+00 -5.5213735849890186e+00 -8.2180639714737698e+00 1 1 1
2125 1 4.1878253245928193e-01 -4.0985579635620955e+00 -7.0989090335118190e+00 -6.9448463925478174e+00 1 1 1
2127 1 4.1878123109877313e-01 -4.0985579631079041e+00 -5.5213735144926011e+00 -1.1574680622458384e+01 1 1 1
2130 2 1.0734644878075199e+00 -4.0985578779226071e+00 -5.5213735563993041e+00 -4.6299304467336260e+00 1 1 1
2131 3 -7.4612434642993808e-01 -4.0985579614185284e+00 -7.0989091734818563e+00 -1.0301462246518939e+01 1 1 1
2132 3 -7.4612468229404794e-01 -4.0985578712537691e+00 -7.0989091292007771e+00 -3.5882305370203333e+00 1 1 1
2135 3 -7.4612282055477464e-01 -4.0985580738394543e+00 -5.5213734789970816e+00 -1.0417950162337544e+00 1 1 1
2136 3 -7.4612303119697665e-01 -4.0985580850334884e+00 -5.5213735849855921e+00 -8.2180639718445896e+00 1 1 1
2186 1 4.1878089677613889e-01 -1.7760416331837153e+01 -3.9438379936312060e+00 -2.3150121685551408e+00 1 1 1
2189 2 1.0734647548477807e+00 -1.7760416386937450e+01 -3.9438381139515997e+00 -9.2597623671483298e+00 1 1 1
2193 3 -7.4612302319613344e-01 -1.7760416229618890e+01 -3.9438379458798289e+00 -5.6716288073458134e+00 1 1 1
2194 3 -7.4612170849139636e-01 -1.7760416315212829e+01 -3.9438378747721430e+00 -1.2847897781515000e+01 1 1 1
2197 1 4.1878260507074078e-01 -1.6394230497618565e+01 -4.7326057529996115e+00 -6.9448463947902201e+00 1 1 1
2198 1 4.1878083385785342e-01 -1.5028044656143926e+01 -3.9438379937931227e+00 -2.3150121666890886e+00 1 1 1
2199 1 4.1878137213923505e-01 -1.6394230496925385e+01 -3.1550702402006436e+00 -1.1574680622668691e+01 1 1 1
2201 2 1.0734645968535270e+00 -1.5028044715112351e+01 -3.9438381121267296e+00 -9.2597623663962541e+00 1 1 1
2202 2 1.0734644966579376e+00 -1.6394230426308738e+01 -3.1550702744793853e+00 -4.6299304528142908e+00 1 1 1
2203 3 -7.4612393089014550e-01 -1.6394230475749016e+01 -4.7326058918145897e+00 -1.0301462243193045e+01 1 1 1
2204 3 -7.4612489449803066e-01 -1.6394230395936091e+01 -4.7326058371127511e+00 -3.5882305310766753e+00 1 1 1
2205 3 -7.4612344583193269e-01 -1.5028044555791016e+01 -3.9438379459320458e+00 -5.6716288112265705e+00 1 1 1
2206 3 -7.4612197575130546e-01 -1.5028044641365335e+01 -3.9438378763372404e+00 -1.2847897778153902e+01 1 1 1
2207 3 -7.4612309635761742e-01 -1.6394230608423573e+01 -3.1550702128856649e+00 -1.0417950144843964e+00 1 1 1
2208 3 -7.4612279381008717e-01 -1.6394230599234280e+01 -3.1550702859325952e+00 -8.2180639700721017e+00 1 1 1
2209 1 4.1878239706181203e-01 -1.3661858822086188e+01 -4.7326057527387597e+00 -6.9448463935718987e+00 1 1 1
2210 1 4.1878084366423207e-01 -1.2295672982025959e+01 -3.9438379943974846e+00 -2.3150121652172295e+00 1 1 1
2211 1 4.1878122257410749e-01 -1.3661858822055329e+01 -3.1550702398597998e+00 -1.1574680623207684e+01 1 1 1
2213 2 1.0734644947751097e+00 -1.2295673037402405e+01 -3.9438381091167507e+00 -9.2597623646023521e+00 1 1 1
2214 2 1.0734644135930422e+00 -1.3661858751232902e+01 -3.1550702729517184e+00 -4.6299304462420015e+00 1 1 1
2215 3 -7.4612440052520634e-01 -1.3661858802392310e+01 -4.7326058921555640e+00 -1.0301462243578223e+01 1 1 1
2216 3 -7.4612509066980970e-01 -1.3661858724152186e+01 -4.7326058381301408e+00 -3.5882305356571180e+00 1 1 1
2217 3 -7.4612363879780164e-01 -1.2295672883993731e+01 -3.9438379462000945e+00 -5.6716288145390266e+00 1 1 1
2218 3 -7.4612224564596008e-01 -1.2295672970005576e+01 -3.9438378784671588e+00 -1.2847897776005308e+01 1 1 1
2219 3 -7.4612305612406127e-01 -1.3661858934215314e+01 -3.1550702116984262e+00 -1.0417950173918520e+00 1 1 1
2220 3 -7.4612320285045330e-01 -1.3661858928267815e+01 -3.1550702883223725e+00 -8.2180639712047618e+00 1 1 1
2221 1 4.1878237348223346e-01 -1.0929487147051159e+01 -4.7326057527436260e+00 -6.9448463925894961e+00 1 1 1
2222 1 4.1878093193963972e-01 -9.5633013096005897e+00 -3.9438379952800311e+00 -2.3150121646894135e+00 1 1 1
2223 1 4.1878114258077276e-01 -1.0929487147351956e+01 -3.1550702399116819e+00 -1.1574680623280161e+01 1 1 1
2225 2 1.0734645025577696e+00 -9.5633013551109425e+00 -3.9438381060053604e+00 -9.2597623624651817e+00 1 1 1
2226 2 1.0734644143851046e+00 -1.0929487073610499e+01 -3.1550702708426570e+00 -4.6299304418177520e+00 1 1 1
2227 3 -7.4612461558984877e-01 -1.0929487132318116e+01 -4.7326058927349504e+00 -1.0301462244371420e+01 1 1 1
2228 3 -7.4612498097651725e-01 -1.0929487052606067e+01 -4.7326058394098194e+00 -3.5882305389252789e+00 1 1 1
2229 3 -7.4612348804273187e-01 -9.5633012138277085e+00 -3.9438379465256519e+00 -5.6716288160322801e+00 1 1 1
2230 3 -7.4612240013872533e-01 -9.5633013002962457e+00 -3.9438378804623984e+00 -1.2847897775863249e+01 1 1 1
2231 3 -7.4612295333778256e-01 -1.0929487259583876e+01 -3.1550702105922319e+00 -1.0417950186043363e+00 1 1 1
2232 3 -7.4612332683234484e-01 -1.0929487259168271e+01 -3.1550702908699630e+00 -8.2180639726367684e+00 1 1 1
2233 1 4.1878249529976425e-01 -8.1971154729318201e+00 -4.7326057530639440e+00 -6.9448463921918426e+00 1 1 1
2234 1 4.1878100459466833e-01 -6.8309296383951654e+00 -3.9438379961931052e+00 -2.3150121653561193e+00 1 1 1
2235 1 4.1878115040696701e-01 -8.1971154732355735e+00 -3.1550702403017770e+00 -1.1574680622840301e+01 1 1 1
2237 2 1.0734645763775985e+00 -6.8309296714201757e+00 -3.9438381041065957e+00 -9.2597623606747277e+00 1 1 1
2238 2 1.0734644861149558e+00 -8.1971153946918118e+00 -3.1550702692193653e+00 -4.6299304412639319e+00 1 1 1
2239 3 -7.4612451853832018e-01 -8.1971154643757362e+00 -4.7326058933524005e+00 -1.0301462245345158e+01 1 1 1
2240 3 -7.4612472362539584e-01 -8.1971153807675137e+00 -4.7326058403115461e+00 -3.5882305396413354e+00 1 1 1
2241 3 -7.4612322084618943e-01 -6.8309295441358735e+00 -3.9438379466168607e+00 -5.6716288150907825e+00 1 1 1
2242 3 -7.4612237544106685e-01 -6.8309296307945520e+00 -3.9438378816193458e+00 -1.2847897777896490e+01 1 1 1
2243 3 -7.4612283104459098e-01 -8.1971155850549220e+00 -3.1550702098315195e+00 -1.0417950176247022e+00 1 1 1
2244 3 -7.4612316098882059e-01 -8.1971155904105153e+00 -3.1550702925322831e+00 -8.2180639738406640e+00 1 1 1
2245 1 4.1878260585216315e-01 -5.4647437999828270e+00 -4.7326057536346076e+00 -6.9448463925101294e+00 1 1 1
2247 1 4.1878121987081940e-01 -5.4647437999406794e+00 -3.1550702409146645e+00 -1.1574680621994684e+01 1 1 1
2250 2 1.0734645492282129e+00 -5.4647437165174040e+00 -3.1550702689420138e+00 -4.6299304448296876e+00 1 1 1
2251 3 -7.4612427681386384e-01 -5.4647437964416614e+00 -4.7326058937079374e+00 -1.0301462246221064e+01 1 1 1
2252 3 -7.4612461244065742e-01 -5.4647437079065391e+00 -4.7326058404094420e+00 -3.5882305375035681e+00 1 1 1
2255 3 -7.4612281125284485e-01 -5.4647439110394380e+00 -3.1550702096432275e+00 -1.0417950147183799e+00 1 1 1
2256 3 -7.4612290590138186e-01 -5.4647439201575114e+00 -3.1550702925279630e+00 -8.2180639744427069e+00 1 1 1
2306 1 4.1878098931275448e-01 -1.9126602169728631e+01 -1.5775347197394129e+00 -2.3150121680830971e+00 1 1 1
2309 2 1.0734647654603167e+00 -1.9126602220144708e+01 -1.5775348301746153e+00 -9.2597623631881039e+00 1 1 1
2313 3 -7.4612283161514825e-01 -1.9126602067429822e+01 -1.5775346685121878e+00 -5.6716288088550417e+00 1 1 1
2314 3 -7.4612191439459730e-01 -1.9126602153686992e+01 -1.5775345850025779e+00 -1.2847897783306836e+01 1 1 1
2317 1 4.1878278113123474e-01 -1.7760416334920951e+01 -2.3663024804380814e+00 -6.9448463940110914e+00 1 1 1
2318 1 4.1878099002314728e-01 -1.6394230494129047e+01 -1.5775347198468150e+00 -2.3150121665066035e+00 1 1 1
2319 1 4.1878127163031609e-01 -1.7760416333630701e+01 -7.8876697143227581e-01 -1.1574680621926232e+01 1 1 1
2321 2 1.0734646631689608e+00 -1.6394230549445432e+01 -1.5775348277015713e+00 -9.2597623632578809e+00 1 1 1
2322 2 1.0734645815705681e+00 -1.7760416261981291e+01 -7.8876698140616952e-01 -4.6299304491015167e+00 1 1 1
2323 3 -7.4612378474531205e-01 -1.7760416314098119e+01 -2.3663026114500774e+00 -1.0301462244589203e+01 1 1 1
2324 3 -7.4612456266363203e-01 -1.7760416232475372e+01 -2.3663025510761688e+00 -3.5882305325689252e+00 1 1 1
2325 3 -7.4612305113936861e-01 -1.6394230392749176e+01 -1.5775346690577638e+00 -5.6716288119263094e+00 1 1 1
2326 3 -7.4612215010753613e-01 -1.6394230479643397e+01 -1.5775345866800610e+00 -1.2847897780231035e+01 1 1 1
2327 3 -7.4612282265626551e-01 -1.7760416444433144e+01 -7.8876694116237900e-01 -1.0417950137660412e+00 1 1 1
2328 3 -7.4612277203976440e-01 -1.7760416437314550e+01 -7.8876699789375770e-01 -8.2180639735302332e+00 1 1 1
2329 1 4.1878260786278243e-01 -1.5028044659626032e+01 -2.3663024800413304e+00 -6.9448463930217423e+00 1 1 1
2330 1 4.1878095500406470e-01 -1.3661858819604989e+01 -1.5775347206812338e+00 -2.3150121651121314e+00 1 1 1
2331 1 4.1878116645562558e-01 -1.5028044659194405e+01 -7.8876697084141156e-01 -1.1574680622534029e+01 1 1 1
2333 2 1.0734645728712124e+00 -1.3661858873655749e+01 -1.5775348235948705e+00 -9.2597623620738414e+00 1 1 1
2334 2 1.0734645405135166e+00 -1.5028044587445198e+01 -7.8876697956443742e-01 -4.6299304437629498e+00 1 1 1
2335 3 -7.4612415677921617e-01 -1.5028044639362658e+01 -2.3663026125831852e+00 -1.0301462244621524e+01 1 1 1
2336 3 -7.4612474759186276e-01 -1.5028044560926020e+01 -2.3663025519615015e+00 -3.5882305365495046e+00 1 1 1
2337 3 -7.4612329025154800e-01 -1.3661858720122861e+01 -1.5775346698031605e+00 -5.6716288149304752e+00 1 1 1
2338 3 -7.4612231807362883e-01 -1.3661858807530256e+01 -1.5775345892482076e+00 -1.2847897777965002e+01 1 1 1
2339 3 -7.4612275816808349e-01 -1.5028044770292857e+01 -7.8876693994009628e-01 -1.0417950164728449e+00 1 1 1
2340 3 -7.4612303129259139e-01 -1.5028044765816738e+01 -7.8876700058584071e-01 -8.2180639740994348e+00 1 1 1
2341 1 4.1878250038732756e-01 -1.2295672984572970e+01 -2.3663024800598969e+00 -6.9448463920566530e+00 1 1 1
2342 1 4.1878093947826928e-01 -1.0929487146574047e+01 -1.5775347219078242e+00 -2.3150121644258927e+00 1 1 1