Generated by Write_poslmp

       2400 atoms
          3 atom types
  -1.350000000000000e+01   1.350000000000000e+01 xlo xhi
  -1.169134295108990e+01   1.169134295108990e+01 ylo yhi
  -1.342858195810952e+01   1.343417836651048e+01 zlo zhi
    -13.50000000      0.00000000      0.00000000 xy xz yz

 Atoms

          1  1   +0.000   4.112174180976050e-16   7.122494611023449e-16   6.715690081155000e+00
          2  1   +0.000   1.350000000000000e+00   7.794244222517230e-01   1.119281232479830e+01
          3  1   +0.000  -1.349999999429900e-06   1.558846506234850e+00   2.238567837511720e+00
          4  2   +0.000   0.000000000000000e+00   0.000000000000000e+00   0.000000000000000e+00
          5  2   +0.000   1.350000000000000e+00   7.794244222517220e-01   4.477122243643280e+00
          6  2   +0.000  -1.349999999018690e-06   1.558846506234850e+00   8.954257918666720e+00
          7  3   +0.000   2.105433180659740e-16   3.646717240844010e-16   3.438433321551360e+00
          8  3   +0.000   6.118915181292360e-16   1.059827198120290e-15   9.992946840758639e+00
          9  3   +0.000   1.350000000000000e+00   7.794244222517220e-01   7.915555565194640e+00
         10  3   +0.000   1.350000000000000e+00   7.794244222517220e-01   1.038688922091920e+00
         11  3   +0.000  -1.349999998808140e-06   1.558846506234850e+00   1.239269124021810e+01
         12  3   +0.000  -1.349999999229230e-06   1.558846506234850e+00   5.515824597115360e+00
         13  1   +0.000   2.700000000000000e+00   7.122494611023449e-16   6.715690081155000e+00
         14  1   +0.000   4.050000000000000e+00   7.794244222517230e-01   1.119281232479830e+01
         15  1   +0.000   2.699998650000000e+00   1.558846506234850e+00   2.238567837511720e+00
         16  2   +0.000   2.700000000000000e+00   0.000000000000000e+00   0.000000000000000e+00
         17  2   +0.000   4.050000000000000e+00   7.794244222517220e-01   4.477122243643280e+00
         18  2   +0.000   2.699998650000000e+00   1.558846506234850e+00   8.954257918666720e+00
         19  3   +0.000   2.700000000000000e+00   3.646717240844010e-16   3.438433321551360e+00
         20  3   +0.000   2.700000000000000e+00   1.059827198120290e-15   9.992946840758639e+00
         21  3   +0.000   4.050000000000000e+00   7.794244222517220e-01   7.915555565194640e+00
         22  3   +0.000   4.050000000000000e+00   7.794244222517220e-01   1.038688922091920e+00
         23  3   +0.000   2.699998650000000e+00   1.558846506234850e+00   1.239269124021810e+01
         24  3   +0.000   2.699998650000000e+00   1.558846506234850e+00   5.515824597115360e+00
         25  1   +0.000   5.400000000000000e+00   7.122494611023449e-16   6.715690081155000e+00
         26  1   +0.000   6.750000000000000e+00   7.794244222517230e-01   1.119281232479830e+01
         27  1   +0.000   5.399998650000000e+00   1.558846506234850e+00   2.238567837511720e+00
         28  2   +0.000   5.400000000000000e+00   0.000000000000000e+00   0.000000000000000e+00
         29  2   +0.000   6.750000000000000e+00   7.794244222517220e-01   4.477122243643280e+00
         30  2   +0.000   5.399998650000000e+00   1.558846506234850e+00   8.954257918666720e+00
         31  3   +0.000   5.400000000000000e+00   3.646717240844010e-16   3.438433321551360e+00
         32  3   +0.000   5.400000000000000e+00   1.059827198120290e-15   9.992946840758639e+00
         33  3   +0.000   6.750000000000000e+00   7.794244222517220e-01   7.915555565194640e+00
         34  3   +0.000   6.750000000000000e+00   7.794244222517220e-01   1.038688922091920e+00
         35  3   +0.000   5.399998650000000e+00   1.558846506234850e+00   1.239269124021810e+01
         36  3   +0.000   5.399998650000000e+00   1.558846506234850e+00   5.515824597115360e+00
         37  1   +0.000   8.100000000000000e+00   7.122494611023449e-16   6.715690081155000e+00
         38  1   +0.000   9.449999999999999e+00   7.794244222517230e-01   1.119281232479830e+01
         39  1   +0.000   8.099998650000000e+00   1.558846506234850e+00   2.238567837511720e+00
         40  2   +0.000   8.100000000000000e+00   0.000000000000000e+00   0.000000000000000e+00
         41  2   +0.000   9.449999999999999e+00   7.794244222517220e-01   4.477122243643280e+00
         42  2   +0.000   8.099998650000000e+00   1.558846506234850e+00   8.954257918666720e+00
         43  3   +0.000   8.100000000000000e+00   3.646717240844010e-16   3.438433321551360e+00
         44  3   +0.000   8.100000000000000e+00   1.059827198120290e-15   9.992946840758639e+00
         45  3   +0.000   9.449999999999999e+00   7.794244222517220e-01   7.915555565194640e+00
         46  3   +0.000   9.449999999999999e+00   7.794244222517220e-01   1.038688922091920e+00
         47  3   +0.000   8.099998650000000e+00   1.558846506234850e+00   1.239269124021810e+01
         48  3   +0.000   8.099998650000000e+00   1.558846506234850e+00   5.515824597115360e+00
         49  1   +0.000   1.080000000000000e+01   7.122494611023449e-16   6.715690081155000e+00
         50  1   +0.000   1.215000000000000e+01   7.794244222517230e-01   1.119281232479830e+01
         51  1   +0.000   1.079999865000000e+01   1.558846506234850e+00   2.238567837511720e+00
         52  2   +0.000   1.080000000000000e+01   0.000000000000000e+00   0.000000000000000e+00
         53  2   +0.000   1.215000000000000e+01   7.794244222517220e-01   4.477122243643280e+00
         54  2   +0.000   1.079999865000000e+01   1.558846506234850e+00   8.954257918666720e+00
         55  3   +0.000   1.080000000000000e+01   3.646717240844010e-16   3.438433321551360e+00
         56  3   +0.000   1.080000000000000e+01   1.059827198120290e-15   9.992946840758639e+00
         57  3   +0.000   1.215000000000000e+01   7.794244222517220e-01   7.915555565194640e+00
         58  3   +0.000   1.215000000000000e+01   7.794244222517220e-01   1.038688922091920e+00
         59  3   +0.000   1.079999865000000e+01   1.558846506234850e+00   1.239269124021810e+01
         60  3   +0.000   1.079999865000000e+01   1.558846506234850e+00   5.515824597115360e+00
         61  1   +0.000   1.350000000000000e+01   7.122494611023449e-16   6.715690081155000e+00
         62  1   +0.000   1.485000000000000e+01   7.794244222517230e-01   1.119281232479830e+01
         63  1   +0.000   1.349999865000000e+01   1.558846506234850e+00   2.238567837511720e+00
         64  2   +0.000   1.350000000000000e+01   0.000000000000000e+00   0.000000000000000e+00
         65  2   +0.000   1.485000000000000e+01   7.794244222517220e-01   4.477122243643280e+00
         66  2   +0.000   1.349999865000000e+01   1.558846506234850e+00   8.954257918666720e+00
         67  3   +0.000   1.350000000000000e+01   3.646717240844010e-16   3.438433321551360e+00
         68  3   +0.000   1.350000000000000e+01   1.059827198120290e-15   9.992946840758639e+00
         69  3   +0.000   1.485000000000000e+01   7.794244222517220e-01   7.915555565194640e+00
         70  3   +0.000   1.485000000000000e+01   7.794244222517220e-01   1.038688922091920e+00
         71  3   +0.000   1.349999865000000e+01   1.558846506234850e+00   1.239269124021810e+01
         72  3   +0.000   1.349999865000000e+01   1.558846506234850e+00   5.515824597115360e+00
         73  1   +0.000   1.620000000000000e+01   7.122494611023449e-16   6.715690081155000e+00
         74  1   +0.000   1.755000000000000e+01   7.794244222517230e-01   1.119281232479830e+01
         75  1   +0.000   1.619999865000000e+01   1.558846506234850e+00   2.238567837511720e+00
         76  2   +0.000   1.620000000000000e+01   0.000000000000000e+00   0.000000000000000e+00
         77  2   +0.000   1.755000000000000e+01   7.794244222517220e-01   4.477122243643280e+00
         78  2   +0.000   1.619999865000000e+01   1.558846506234850e+00   8.954257918666720e+00
         79  3   +0.000   1.620000000000000e+01   3.646717240844010e-16   3.438433321551360e+00
         80  3   +0.000   1.620000000000000e+01   1.059827198120290e-15   9.992946840758639e+00
         81  3   +0.000   1.755000000000000e+01   7.794244222517220e-01   7.915555565194640e+00
         82  3   +0.000   1.755000000000000e+01   7.794244222517220e-01   1.038688922091920e+00
         83  3   +0.000   1.619999865000000e+01   1.558846506234850e+00   1.239269124021810e+01
         84  3   +0.000   1.619999865000000e+01   1.558846506234850e+00   5.515824597115360e+00
         85  1   +0.000   1.890000000000000e+01   7.122494611023449e-16   6.715690081155000e+00
         86  1   +0.000   2.025000000000000e+01   7.794244222517230e-01   1.119281232479830e+01
         87  1   +0.000   1.889999865000000e+01   1.558846506234850e+00   2.238567837511720e+00
         88  2   +0.000   1.890000000000000e+01   0.000000000000000e+00   0.000000000000000e+00
         89  2   +0.000   2.025000000000000e+01   7.794244222517220e-01   4.477122243643280e+00
         90  2   +0.000   1.889999865000000e+01   1.558846506234850e+00   8.954257918666720e+00
         91  3   +0.000   1.890000000000000e+01   3.646717240844010e-16   3.438433321551360e+00
         92  3   +0.000   1.890000000000000e+01   1.059827198120290e-15   9.992946840758639e+00
         93  3   +0.000   2.025000000000000e+01   7.794244222517220e-01   7.915555565194640e+00
         94  3   +0.000   2.025000000000000e+01   7.794244222517220e-01   1.038688922091920e+00
         95  3   +0.000   1.889999865000000e+01   1.558846506234850e+00   1.239269124021810e+01
         96  3   +0.000   1.889999865000000e+01   1.558846506234850e+00   5.515824597115360e+00
         97  1   +0.000   2.160000000000000e+01   7.122494611023449e-16   6.715690081155000e+00
         98  1   +0.000   2.295000000000000e+01   7.794244222517230e-01   1.119281232479830e+01
         99  1   +0.000   2.159999865000000e+01   1.558846506234850e+00   2.238567837511720e+00
        100  2   +0.000   2.160000000000000e+01   0.000000000000000e+00   0.000000000000000e+00
        101  2   +0.000   2.295000000000000e+01   7.794244222517220e-01   4.477122243643280e+00
        102  2   +0.000   2.159999865000000e+01   1.558846506234850e+00   8.954257918666720e+00
        103  3   +0.000   2.160000000000000e+01   3.646717240844010e-16   3.438433321551360e+00
        104  3   +0.000   2.160000000000000e+01   1.059827198120290e-15   9.992946840758639e+00
        105  3   +0.000   2.295000000000000e+01   7.794244222517220e-01   7.915555565194640e+00
        106  3   +0.000   2.295000000000000e+01   7.794244222517220e-01   1.038688922091920e+00
        107  3   +0.000   2.159999865000000e+01   1.558846506234850e+00   1.239269124021810e+01
        108  3   +0.000   2.159999865000000e+01   1.558846506234850e+00   5.515824597115360e+00
        109  1   +0.000   2.430000000000000e+01   7.122494611023449e-16   6.715690081155000e+00
        110  1   +0.000   2.565000000000000e+01   7.794244222517230e-01   1.119281232479830e+01
        111  1   +0.000   2.429999865000000e+01   1.558846506234850e+00   2.238567837511720e+00
        112  2   +0.000   2.430000000000000e+01   0.000000000000000e+00   0.000000000000000e+00
        113  2   +0.000   2.565000000000000e+01   7.794244222517220e-01   4.477122243643280e+00
        114  2   +0.000   2.429999865000000e+01   1.558846506234850e+00   8.954257918666720e+00
        115  3   +0.000   2.430000000000000e+01   3.646717240844010e-16   3.438433321551360e+00
        116  3   +0.000   2.430000000000000e+01   1.059827198120290e-15   9.992946840758639e+00
        117  3   +0.000   2.565000000000000e+01   7.794244222517220e-01   7.915555565194640e+00
        118  3   +0.000   2.565000000000000e+01   7.794244222517220e-01   1.038688922091920e+00
        119  3   +0.000   2.429999865000000e+01   1.558846506234850e+00   1.239269124021810e+01
        120  3   +0.000   2.429999865000000e+01   1.558846506234850e+00   5.515824597115360e+00
        121  1   +0.000  -1.350000000000000e+00   2.338268590217990e+00   6.715690081155000e+00
        122  1   +0.000   1.573540509051190e-15   3.117693012469710e+00   1.119281232479830e+01
        123  1   +0.000  -1.350001350000000e+00   3.897115096452840e+00   2.238567837511720e+00
        124  2   +0.000  -1.350000000000000e+00   2.338268590217980e+00   0.000000000000000e+00
        125  2   +0.000   1.162323090953580e-15   3.117693012469710e+00   4.477122243643280e+00
        126  2   +0.000  -1.350001350000000e+00   3.897115096452840e+00   8.954257918666720e+00
        127  3   +0.000  -1.350000000000000e+00   2.338268590217980e+00   3.438433321551360e+00
        128  3   +0.000  -1.350000000000000e+00   2.338268590217990e+00   9.992946840758639e+00
        129  3   +0.000   1.372866409019560e-15   3.117693012469710e+00   7.915555565194640e+00
        130  3   +0.000   9.517797728876091e-16   3.117693012469710e+00   1.038688922091920e+00
        131  3   +0.000  -1.350001350000000e+00   3.897115096452840e+00   1.239269124021810e+01
        132  3   +0.000  -1.350001350000000e+00   3.897115096452840e+00   5.515824597115360e+00
        133  1   +0.000   1.350000000000000e+00   2.338268590217990e+00   6.715690081155000e+00
        134  1   +0.000   2.700000000000000e+00   3.117693012469710e+00   1.119281232479830e+01
        135  1   +0.000   1.349998650000000e+00   3.897115096452840e+00   2.238567837511720e+00
        136  2   +0.000   1.350000000000000e+00   2.338268590217980e+00   0.000000000000000e+00
        137  2   +0.000   2.700000000000000e+00   3.117693012469710e+00   4.477122243643280e+00
        138  2   +0.000   1.349998650000000e+00   3.897115096452840e+00   8.954257918666720e+00
        139  3   +0.000   1.350000000000000e+00   2.338268590217980e+00   3.438433321551360e+00
        140  3   +0.000   1.350000000000000e+00   2.338268590217990e+00   9.992946840758639e+00
        141  3   +0.000   2.700000000000000e+00   3.117693012469710e+00   7.915555565194640e+00
        142  3   +0.000   2.700000000000000e+00   3.117693012469710e+00   1.038688922091920e+00
        143  3   +0.000   1.349998650000000e+00   3.897115096452840e+00   1.239269124021810e+01
        144  3   +0.000   1.349998650000000e+00   3.897115096452840e+00   5.515824597115360e+00
        145  1   +0.000   4.050000000000000e+00   2.338268590217990e+00   6.715690081155000e+00
        146  1   +0.000   5.400000000000000e+00   3.117693012469710e+00   1.119281232479830e+01
        147  1   +0.000   4.049998650000000e+00   3.897115096452840e+00   2.238567837511720e+00
        148  2   +0.000   4.050000000000000e+00   2.338268590217980e+00   0.000000000000000e+00
        149  2   +0.000   5.400000000000000e+00   3.117693012469710e+00   4.477122243643280e+00
        150  2   +0.000   4.049998650000000e+00   3.897115096452840e+00   8.954257918666720e+00
        151  3   +0.000   4.050000000000000e+00   2.338268590217980e+00   3.438433321551360e+00
        152  3   +0.000   4.050000000000000e+00   2.338268590217990e+00   9.992946840758639e+00
        153  3   +0.000   5.400000000000000e+00   3.117693012469710e+00   7.915555565194640e+00
        154  3   +0.000   5.400000000000000e+00   3.117693012469710e+00   1.038688922091920e+00
        155  3   +0.000   4.049998650000000e+00   3.897115096452840e+00   1.239269124021810e+01
        156  3   +0.000   4.049998650000000e+00   3.897115096452840e+00   5.515824597115360e+00
        157  1   +0.000   6.750000000000000e+00   2.338268590217990e+00   6.715690081155000e+00
        158  1   +0.000   8.100000000000000e+00   3.117693012469710e+00   1.119281232479830e+01
        159  1   +0.000   6.749998650000000e+00   3.897115096452840e+00   2.238567837511720e+00
        160  2   +0.000   6.750000000000000e+00   2.338268590217980e+00   0.000000000000000e+00
        161  2   +0.000   8.100000000000000e+00   3.117693012469710e+00   4.477122243643280e+00
        162  2   +0.000   6.749998650000000e+00   3.897115096452840e+00   8.954257918666720e+00
        163  3   +0.000   6.750000000000000e+00   2.338268590217980e+00   3.438433321551360e+00
        164  3   +0.000   6.750000000000000e+00   2.338268590217990e+00   9.992946840758639e+00
        165  3   +0.000   8.100000000000000e+00   3.117693012469710e+00   7.915555565194640e+00
        166  3   +0.000   8.100000000000000e+00   3.117693012469710e+00   1.038688922091920e+00
        167  3   +0.000   6.749998650000000e+00   3.897115096452840e+00   1.239269124021810e+01
        168  3   +0.000   6.749998650000000e+00   3.897115096452840e+00   5.515824597115360e+00
        169  1   +0.000   9.449999999999999e+00   2.338268590217990e+00   6.715690081155000e+00
        170  1   +0.000   1.080000000000000e+01   3.117693012469710e+00   1.119281232479830e+01
        171  1   +0.000   9.449998650000000e+00   3.897115096452840e+00   2.238567837511720e+00
        172  2   +0.000   9.449999999999999e+00   2.338268590217980e+00   0.000000000000000e+00
        173  2   +0.000   1.080000000000000e+01   3.117693012469710e+00   4.477122243643280e+00
        174  2   +0.000   9.449998650000000e+00   3.897115096452840e+00   8.954257918666720e+00
        175  3   +0.000   9.449999999999999e+00   2.338268590217980e+00   3.438433321551360e+00
        176  3   +0.000   9.449999999999999e+00   2.338268590217990e+00   9.992946840758639e+00
        177  3   +0.000   1.080000000000000e+01   3.117693012469710e+00   7.915555565194640e+00
        178  3   +0.000   1.080000000000000e+01   3.117693012469710e+00   1.038688922091920e+00
        179  3   +0.000   9.449998650000000e+00   3.897115096452840e+00   1.239269124021810e+01
        180  3   +0.000   9.449998650000000e+00   3.897115096452840e+00   5.515824597115360e+00
        181  1   +0.000   1.215000000000000e+01   2.338268590217990e+00   6.715690081155000e+00
        182  1   +0.000   1.350000000000000e+01   3.117693012469710e+00   1.119281232479830e+01
        183  1   +0.000   1.214999865000000e+01   3.897115096452840e+00   2.238567837511720e+00
        184  2   +0.000   1.215000000000000e+01   2.338268590217980e+00   0.000000000000000e+00
        185  2   +0.000   1.350000000000000e+01   3.117693012469710e+00   4.477122243643280e+00
        186  2   +0.000   1.214999865000000e+01   3.897115096452840e+00   8.954257918666720e+00
        187  3   +0.000   1.215000000000000e+01   2.338268590217980e+00   3.438433321551360e+00
        188  3   +0.000   1.215000000000000e+01   2.338268590217990e+00   9.992946840758639e+00
        189  3   +0.000   1.350000000000000e+01   3.117693012469710e+00   7.915555565194640e+00
        190  3   +0.000   1.350000000000000e+01   3.117693012469710e+00   1.038688922091920e+00
        191  3   +0.000   1.214999865000000e+01   3.897115096452840e+00   1.239269124021810e+01
        192  3   +0.000   1.214999865000000e+01   3.897115096452840e+00   5.515824597115360e+00
        193  1   +0.000   1.485000000000000e+01   2.338268590217990e+00   6.715690081155000e+00
        194  1   +0.000   1.620000000000000e+01   3.117693012469710e+00   1.119281232479830e+01
        195  1   +0.000   1.484999865000000e+01   3.897115096452840e+00   2.238567837511720e+00
        196  2   +0.000   1.485000000000000e+01   2.338268590217980e+00   0.000000000000000e+00
        197  2   +0.000   1.620000000000000e+01   3.117693012469710e+00   4.477122243643280e+00
        198  2   +0.000   1.484999865000000e+01   3.897115096452840e+00   8.954257918666720e+00
        199  3   +0.000   1.485000000000000e+01   2.338268590217980e+00   3.438433321551360e+00
        200  3   +0.000   1.485000000000000e+01   2.338268590217990e+00   9.992946840758639e+00
        201  3   +0.000   1.620000000000000e+01   3.117693012469710e+00   7.915555565194640e+00
        202  3   +0.000   1.620000000000000e+01   3.117693012469710e+00   1.038688922091920e+00
        203  3   +0.000   1.484999865000000e+01   3.897115096452840e+00   1.239269124021810e+01
        204  3   +0.000   1.484999865000000e+01   3.897115096452840e+00   5.515824597115360e+00
        205  1   +0.000   1.755000000000000e+01   2.338268590217990e+00   6.715690081155000e+00
        206  1   +0.000   1.890000000000000e+01   3.117693012469710e+00   1.119281232479830e+01
        207  1   +0.000   1.754999865000000e+01   3.897115096452840e+00   2.238567837511720e+00
        208  2   +0.000   1.755000000000000e+01   2.338268590217980e+00   0.000000000000000e+00
        209  2   +0.000   1.890000000000000e+01   3.117693012469710e+00   4.477122243643280e+00
        210  2   +0.000   1.754999865000000e+01   3.897115096452840e+00   8.954257918666720e+00
        211  3   +0.000   1.755000000000000e+01   2.338268590217980e+00   3.438433321551360e+00
        212  3   +0.000   1.755000000000000e+01   2.338268590217990e+00   9.992946840758639e+00
        213  3   +0.000   1.890000000000000e+01   3.117693012469710e+00   7.915555565194640e+00
        214  3   +0.000   1.890000000000000e+01   3.117693012469710e+00   1.038688922091920e+00
        215  3   +0.000   1.754999865000000e+01   3.897115096452840e+00   1.239269124021810e+01
        216  3   +0.000   1.754999865000000e+01   3.897115096452840e+00   5.515824597115360e+00
        217  1   +0.000   2.025000000000000e+01   2.338268590217990e+00   6.715690081155000e+00
        218  1   +0.000   2.160000000000000e+01   3.117693012469710e+00   1.119281232479830e+01
        219  1   +0.000   2.024999865000000e+01   3.897115096452840e+00   2.238567837511720e+00
        220  2   +0.000   2.025000000000000e+01   2.338268590217980e+00   0.000000000000000e+00
        221  2   +0.000   2.160000000000000e+01   3.117693012469710e+00   4.477122243643280e+00
        222  2   +0.000   2.024999865000000e+01   3.897115096452840e+00   8.954257918666720e+00
        223  3   +0.000   2.025000000000000e+01   2.338268590217980e+00   3.438433321551360e+00
        224  3   +0.000   2.025000000000000e+01   2.338268590217990e+00   9.992946840758639e+00
        225  3   +0.000   2.160000000000000e+01   3.117693012469710e+00   7.915555565194640e+00
        226  3   +0.000   2.160000000000000e+01   3.117693012469710e+00   1.038688922091920e+00
        227  3   +0.000   2.024999865000000e+01   3.897115096452840e+00   1.239269124021810e+01
        228  3   +0.000   2.024999865000000e+01   3.897115096452840e+00   5.515824597115360e+00
        229  1   +0.000   2.295000000000000e+01   2.338268590217990e+00   6.715690081155000e+00
        230  1   +0.000   2.430000000000000e+01   3.117693012469710e+00   1.119281232479830e+01
        231  1   +0.000   2.294999865000000e+01   3.897115096452840e+00   2.238567837511720e+00
        232  2   +0.000   2.295000000000000e+01   2.338268590217980e+00   0.000000000000000e+00
        233  2   +0.000   2.430000000000000e+01   3.117693012469710e+00   4.477122243643280e+00
        234  2   +0.000   2.294999865000000e+01   3.897115096452840e+00   8.954257918666720e+00
        235  3   +0.000   2.295000000000000e+01   2.338268590217980e+00   3.438433321551360e+00
        236  3   +0.000   2.295000000000000e+01   2.338268590217990e+00   9.992946840758639e+00
        237  3   +0.000   2.430000000000000e+01   3.117693012469710e+00   7.915555565194640e+00
        238  3   +0.000   2.430000000000000e+01   3.117693012469710e+00   1.038688922091920e+00
        239  3   +0.000   2.294999865000000e+01   3.897115096452840e+00   1.239269124021810e+01
        240  3   +0.000   2.294999865000000e+01   3.897115096452840e+00   5.515824597115360e+00
        241  1   +0.000  -2.700000000000000e+00   4.676537180435970e+00   6.715690081155000e+00
        242  1   +0.000  -1.350000000000000e+00   5.455961602687690e+00   1.119281232479830e+01
        243  1   +0.000  -2.700001350000000e+00   6.235383686670820e+00   2.238567837511720e+00
        244  2   +0.000  -2.700000000000000e+00   4.676537180435970e+00   0.000000000000000e+00
        245  2   +0.000  -1.350000000000000e+00   5.455961602687690e+00   4.477122243643280e+00
        246  2   +0.000  -2.700001350000000e+00   6.235383686670820e+00   8.954257918666720e+00
        247  3   +0.000  -2.700000000000000e+00   4.676537180435970e+00   3.438433321551360e+00
        248  3   +0.000  -2.700000000000000e+00   4.676537180435970e+00   9.992946840758639e+00
        249  3   +0.000  -1.350000000000000e+00   5.455961602687690e+00   7.915555565194640e+00
        250  3   +0.000  -1.350000000000000e+00   5.455961602687690e+00   1.038688922091920e+00
        251  3   +0.000  -2.700001350000000e+00   6.235383686670820e+00   1.239269124021810e+01
        252  3   +0.000  -2.700001350000000e+00   6.235383686670820e+00   5.515824597115360e+00
        253  1   +0.000   1.743485047647790e-15   4.676537180435970e+00   6.715690081155000e+00
        254  1   +0.000   1.350000000000000e+00   5.455961602687690e+00   1.119281232479830e+01
        255  1   +0.000  -1.349999997875590e-06   6.235383686670820e+00   2.238567837511720e+00
        256  2   +0.000   1.332267629550190e-15   4.676537180435970e+00   0.000000000000000e+00
        257  2   +0.000   1.350000000000000e+00   5.455961602687690e+00   4.477122243643280e+00
        258  2   +0.000  -1.349999997464370e-06   6.235383686670820e+00   8.954257918666720e+00
        259  3   +0.000   1.542810947616160e-15   4.676537180435970e+00   3.438433321551360e+00
        260  3   +0.000   1.944159147679420e-15   4.676537180435970e+00   9.992946840758639e+00
        261  3   +0.000   1.350000000000000e+00   5.455961602687690e+00   7.915555565194640e+00
        262  3   +0.000   1.350000000000000e+00   5.455961602687690e+00   1.038688922091920e+00
        263  3   +0.000  -1.349999997253830e-06   6.235383686670820e+00   1.239269124021810e+01
        264  3   +0.000  -1.349999997674920e-06   6.235383686670820e+00   5.515824597115360e+00
        265  1   +0.000   2.700000000000000e+00   4.676537180435970e+00   6.715690081155000e+00
        266  1   +0.000   4.050000000000000e+00   5.455961602687690e+00   1.119281232479830e+01
        267  1   +0.000   2.699998650000000e+00   6.235383686670820e+00   2.238567837511720e+00
        268  2   +0.000   2.700000000000000e+00   4.676537180435970e+00   0.000000000000000e+00
        269  2   +0.000   4.050000000000000e+00   5.455961602687690e+00   4.477122243643280e+00
        270  2   +0.000   2.699998650000000e+00   6.235383686670820e+00   8.954257918666720e+00
        271  3   +0.000   2.700000000000000e+00   4.676537180435970e+00   3.438433321551360e+00
        272  3   +0.000   2.700000000000000e+00   4.676537180435970e+00   9.992946840758639e+00
        273  3   +0.000   4.050000000000000e+00   5.455961602687690e+00   7.915555565194640e+00
        274  3   +0.000   4.050000000000000e+00   5.455961602687690e+00   1.038688922091920e+00
        275  3   +0.000   2.699998650000000e+00   6.235383686670820e+00   1.239269124021810e+01
        276  3   +0.000   2.699998650000000e+00   6.235383686670820e+00   5.515824597115360e+00
        277  1   +0.000   5.400000000000000e+00   4.676537180435970e+00   6.715690081155000e+00
        278  1   +0.000   6.750000000000000e+00   5.455961602687690e+00   1.119281232479830e+01
        279  1   +0.000   5.399998650000000e+00   6.235383686670820e+00   2.238567837511720e+00
        280  2   +0.000   5.400000000000000e+00   4.676537180435970e+00   0.000000000000000e+00
        281  2   +0.000   6.750000000000000e+00   5.455961602687690e+00   4.477122243643280e+00
        282  2   +0.000   5.399998650000000e+00   6.235383686670820e+00   8.954257918666720e+00
        283  3   +0.000   5.400000000000000e+00   4.676537180435970e+00   3.438433321551360e+00
        284  3   +0.000   5.400000000000000e+00   4.676537180435970e+00   9.992946840758639e+00
        285  3   +0.000   6.750000000000000e+00   5.455961602687690e+00   7.915555565194640e+00
        286  3   +0.000   6.750000000000000e+00   5.455961602687690e+00   1.038688922091920e+00
        287  3   +0.000   5.399998650000000e+00   6.235383686670820e+00   1.239269124021810e+01
        288  3   +0.000   5.399998650000000e+00   6.235383686670820e+00   5.515824597115360e+00
        289  1   +0.000   8.100000000000000e+00   4.676537180435970e+00   6.715690081155000e+00
        290  1   +0.000   9.449999999999999e+00   5.455961602687690e+00   1.119281232479830e+01
        291  1   +0.000   8.099998650000000e+00   6.235383686670820e+00   2.238567837511720e+00
        292  2   +0.000   8.100000000000000e+00   4.676537180435970e+00   0.000000000000000e+00
        293  2   +0.000   9.449999999999999e+00   5.455961602687690e+00   4.477122243643280e+00
        294  2   +0.000   8.099998650000000e+00   6.235383686670820e+00   8.954257918666720e+00
        295  3   +0.000   8.100000000000000e+00   4.676537180435970e+00   3.438433321551360e+00
        296  3   +0.000   8.100000000000000e+00   4.676537180435970e+00   9.992946840758639e+00
        297  3   +0.000   9.449999999999999e+00   5.455961602687690e+00   7.915555565194640e+00
        298  3   +0.000   9.449999999999999e+00   5.455961602687690e+00   1.038688922091920e+00
        299  3   +0.000   8.099998650000000e+00   6.235383686670820e+00   1.239269124021810e+01
        300  3   +0.000   8.099998650000000e+00   6.235383686670820e+00   5.515824597115360e+00
        301  1   +0.000   1.080000000000000e+01   4.676537180435970e+00   6.715690081155000e+00
        302  1   +0.000   1.215000000000000e+01   5.455961602687690e+00   1.119281232479830e+01
        303  1   +0.000   1.079999865000000e+01   6.235383686670820e+00   2.238567837511720e+00
        304  2   +0.000   1.080000000000000e+01   4.676537180435970e+00   0.000000000000000e+00
        305  2   +0.000   1.215000000000000e+01   5.455961602687690e+00   4.477122243643280e+00
        306  2   +0.000   1.079999865000000e+01   6.235383686670820e+00   8.954257918666720e+00
        307  3   +0.000   1.080000000000000e+01   4.676537180435970e+00   3.438433321551360e+00
        308  3   +0.000   1.080000000000000e+01   4.676537180435970e+00   9.992946840758639e+00
        309  3   +0.000   1.215000000000000e+01   5.455961602687690e+00   7.915555565194640e+00